# Coordinate of the center of mass
# Time [s] | COM_x | COM_y | COM_z
0.000000e+00	2.476930e-21	-3.054452e-21	4.548310e-20
1.199904e-03	3.945550e-09	2.833754e-11	-2.832294e-13
2.639651e-03	2.190390e-09	4.432871e-11	-3.055516e-13
4.367048e-03	6.384736e-10	5.533940e-11	-4.101252e-13
6.439925e-03	-2.804943e-10	5.328010e-11	-5.501945e-13
8.926757e-03	-1.638590e-10	4.684746e-11	-4.999213e-13
1.191006e-02	1.280725e-09	4.021429e-11	-3.170213e-13
1.548832e-02	4.106961e-09	3.228863e-11	-2.897782e-13
1.978161e-02	8.045559e-09	2.459999e-11	-3.507248e-13
2.493179e-02	1.246566e-08	1.878508e-11	-5.180748e-13
3.111200e-02	1.641631e-08	2.012005e-11	-6.212258e-13
3.852825e-02	1.875787e-08	2.190160e-11	-6.918385e-13
4.741977e-02	1.837975e-08	2.929412e-11	-1.373953e-12
5.807048e-02	1.449026e-08	4.501480e-11	-2.677919e-12
7.084033e-02	6.891324e-09	6.766229e-11	-3.865682e-12
8.614828e-02	-3.800838e-09	8.548011e-11	-5.399273e-12
1.044835e-01	-1.603650e-08	1.000738e-10	-7.278530e-12
1.264365e-01	-2.745269e-08	9.665895e-11	-9.898116e-12
1.527801e-01	-3.523192e-08	8.884171e-11	-1.319076e-11
1.842556e-01	-3.657527e-08	5.225661e-11	-1.543633e-11
2.218786e-01	-2.947400e-08	-1.166090e-11	-1.700887e-11
2.669552e-01	-1.334998e-08	-9.643793e-11	-1.984952e-11
3.207398e-01	1.022822e-08	-1.901894e-10	-2.388370e-11
3.848392e-01	3.738872e-08	-2.849777e-10	-2.949463e-11
4.617586e-01	6.239618e-08	-3.381784e-10	-3.657854e-11
5.525234e-01	7.770889e-08	-3.718363e-10	-4.507744e-11
6.513562e-01	7.668155e-08	-3.483623e-10	-5.903559e-11
7.501890e-01	5.921241e-08	-2.945447e-10	-7.634679e-11
8.490219e-01	2.952307e-08	-2.252034e-10	-9.415505e-11
9.478547e-01	-6.248576e-09	-1.686934e-10	-1.118121e-10
1.046687e+00	-4.136076e-08	-1.176570e-10	-1.290203e-10
1.145520e+00	-6.984055e-08	-1.273038e-10	-1.466303e-10
1.244353e+00	-8.749273e-08	-1.559536e-10	-1.612251e-10
1.343186e+00	-9.256658e-08	-2.220616e-10	-1.758306e-10
1.442019e+00	-8.582069e-08	-3.048836e-10	-1.886470e-10
1.540852e+00	-7.013086e-08	-4.001357e-10	-2.019855e-10
1.639684e+00	-4.979086e-08	-4.880362e-10	-2.154682e-10
1.738517e+00	-2.957487e-08	-5.649728e-10	-2.288840e-10
1.837350e+00	-1.378500e-08	-6.005760e-10	-2.422584e-10
1.936183e+00	-5.466811e-09	-6.247334e-10	-2.559160e-10
2.035016e+00	-5.988457e-09	-6.271256e-10	-2.719840e-10
2.133848e+00	-1.492680e-08	-6.146746e-10	-2.902644e-10
2.232681e+00	-3.031910e-08	-5.876122e-10	-3.089686e-10
2.331514e+00	-4.917533e-08	-5.578294e-10	-3.275205e-10
2.430347e+00	-6.811414e-08	-5.323105e-10	-3.460046e-10
2.529180e+00	-8.404607e-08	-5.282776e-10	-3.646183e-10
2.628012e+00	-9.472874e-08	-5.357199e-10	-3.834101e-10
2.726845e+00	-9.910906e-08	-5.647797e-10	-4.006447e-10
2.825678e+00	-9.741231e-08	-6.057338e-10	-4.166256e-10
2.924511e+00	-9.096625e-08	-6.524477e-10	-4.320786e-10
3.023344e+00	-8.186378e-08	-6.978823e-10	-4.483273e-10
3.122177e+00	-7.249700e-08	-7.367095e-10	-4.648080e-10
3.221009e+00	-6.508097e-08	-7.614701e-10	-4.812200e-10
3.319842e+00	-6.125336e-08	-7.727329e-10	-4.975665e-10
3.418675e+00	-6.182161e-08	-7.655067e-10	-5.153418e-10
3.517508e+00	-6.668505e-08	-7.463952e-10	-5.342254e-10
3.616341e+00	-7.494549e-08	-7.144616e-10	-5.537528e-10
3.715173e+00	-8.514430e-08	-6.837931e-10	-5.731485e-10
3.814006e+00	-9.558537e-08	-6.477269e-10	-5.926562e-10
3.912839e+00	-1.046737e-07	-6.303463e-10	-6.121826e-10
4.011672e+00	-1.112165e-07	-6.218509e-10	-6.314715e-10
4.110505e+00	-1.146029e-07	-6.293745e-10	-6.509816e-10
4.209337e+00	-1.148631e-07	-6.465286e-10	-6.695607e-10
4.308170e+00	-1.126100e-07	-6.735105e-10	-6.876956e-10
4.407003e+00	-1.088594e-07	-6.985752e-10	-7.060086e-10
4.505836e+00	-1.048093e-07	-7.256929e-10	-7.244518e-10
4.604669e+00	-1.016024e-07	-7.396872e-10	-7.429577e-10
4.703502e+00	-1.001047e-07	-7.481973e-10	-7.615042e-10
4.802334e+00	-1.007826e-07	-7.430677e-10	-7.799522e-10
4.901167e+00	-1.036435e-07	-7.291949e-10	-7.991009e-10
5.000000e+00	-1.082789e-07	-7.066469e-10	-8.185777e-10
5.100000e+00	-1.140459e-07	-6.834958e-10	-8.382511e-10
5.200000e+00	-1.200308e-07	-6.576595e-10	-8.578719e-10
5.300000e+00	-1.254047e-07	-6.406844e-10	-8.773734e-10
5.400000e+00	-1.295276e-07	-6.265136e-10	-8.968333e-10
5.500000e+00	-1.320477e-07	-6.215804e-10	-9.165752e-10
5.600000e+00	-1.329402e-07	-6.204347e-10	-9.358449e-10
5.700000e+00	-1.324819e-07	-6.206963e-10	-9.549455e-10
5.800000e+00	-1.311736e-07	-6.209975e-10	-9.739063e-10
5.900000e+00	-1.296238e-07	-6.226835e-10	-9.929938e-10
6.000000e+00	-1.284265e-07	-6.190612e-10	-1.012252e-09
6.100000e+00	-1.280485e-07	-6.183685e-10	-1.031401e-09
6.200000e+00	-1.287540e-07	-6.101572e-10	-1.050580e-09
6.300000e+00	-1.305758e-07	-5.989298e-10	-1.069742e-09
6.400000e+00	-1.333298e-07	-5.854387e-10	-1.089017e-09
6.500000e+00	-1.366687e-07	-5.725078e-10	-1.108393e-09
6.600000e+00	-1.401624e-07	-5.591416e-10	-1.127782e-09
6.700000e+00	-1.433869e-07	-5.502277e-10	-1.147288e-09
6.800000e+00	-1.460011e-07	-5.416958e-10	-1.166327e-09
6.900000e+00	-1.478071e-07	-5.344193e-10	-1.185560e-09
7.000000e+00	-1.487726e-07	-5.272476e-10	-1.204812e-09
7.100000e+00	-1.490210e-07	-5.210321e-10	-1.224000e-09
7.200000e+00	-1.487936e-07	-5.149683e-10	-1.243109e-09
7.300000e+00	-1.483946e-07	-5.081107e-10	-1.262172e-09
7.400000e+00	-1.481275e-07	-4.999165e-10	-1.281189e-09
7.500000e+00	-1.482385e-07	-4.900063e-10	-1.300180e-09
7.600000e+00	-1.488757e-07	-4.781949e-10	-1.319211e-09
7.700000e+00	-1.500709e-07	-4.651760e-10	-1.338282e-09
7.800000e+00	-1.517440e-07	-4.510520e-10	-1.357456e-09
7.900000e+00	-1.537284e-07	-4.369218e-10	-1.376649e-09
8.000000e+00	-1.558101e-07	-4.227884e-10	-1.395869e-09
8.100000e+00	-1.577727e-07	-4.100673e-10	-1.415106e-09
8.200000e+00	-1.594378e-07	-3.975630e-10	-1.434324e-09
8.300000e+00	-1.606949e-07	-3.868780e-10	-1.453409e-09
8.400000e+00	-1.615177e-07	-3.767937e-10	-1.472446e-09
8.500000e+00	-1.619585e-07	-3.672957e-10	-1.491408e-09
8.600000e+00	-1.621328e-07	-3.579992e-10	-1.510297e-09
8.700000e+00	-1.621919e-07	-3.485056e-10	-1.529144e-09
8.800000e+00	-1.622904e-07	-3.384439e-10	-1.547965e-09
8.900000e+00	-1.625578e-07	-3.277662e-10	-1.566761e-09
9.000000e+00	-1.630760e-07	-3.165834e-10	-1.585566e-09
9.100000e+00	-1.638684e-07	-3.049964e-10	-1.604394e-09
9.200000e+00	-1.649014e-07	-2.929449e-10	-1.623251e-09
9.300000e+00	-1.660958e-07	-2.807878e-10	-1.642115e-09
9.400000e+00	-1.673458e-07	-2.685651e-10	-1.660961e-09
9.500000e+00	-1.685416e-07	-2.567351e-10	-1.679783e-09
9.600000e+00	-1.695902e-07	-2.451619e-10	-1.698570e-09
9.700000e+00	-1.704314e-07	-2.343771e-10	-1.717284e-09
9.800000e+00	-1.710461e-07	-2.237535e-10	-1.735927e-09
9.900000e+00	-1.714565e-07	-2.136755e-10	-1.754498e-09
1.000000e+01	-1.717172e-07	-2.038477e-10	-1.772999e-09
1.010000e+01	-1.719029e-07	-1.939382e-10	-1.791448e-09
1.020000e+01	-1.720923e-07	-1.837028e-10	-1.809870e-09
1.030000e+01	-1.723525e-07	-1.731555e-10	-1.828263e-09
1.040000e+01	-1.727285e-07	-1.624281e-10	-1.846643e-09
1.050000e+01	-1.732360e-07	-1.515666e-10	-1.865009e-09
1.060000e+01	-1.738617e-07	-1.410258e-10	-1.883395e-09
1.070000e+01	-1.745685e-07	-1.306131e-10	-1.901763e-09
1.080000e+01	-1.753047e-07	-1.203055e-10	-1.920105e-09
1.090000e+01	-1.760149e-07	-1.101837e-10	-1.938403e-09
1.100000e+01	-1.766508e-07	-1.003139e-10	-1.956663e-09
1.110000e+01	-1.771797e-07	-9.070374e-11	-1.974860e-09
1.120000e+01	-1.775893e-07	-8.126856e-11	-1.993007e-09
1.130000e+01	-1.778881e-07	-7.207144e-11	-2.011101e-09
1.140000e+01	-1.781018e-07	-6.279428e-11	-2.029138e-09
1.150000e+01	-1.782673e-07	-5.365411e-11	-2.047130e-09
1.160000e+01	-1.784243e-07	-4.436374e-11	-2.065089e-09
1.170000e+01	-1.786080e-07	-3.509098e-11	-2.083023e-09
1.180000e+01	-1.788427e-07	-2.558224e-11	-2.100968e-09
1.190000e+01	-1.791381e-07	-1.604600e-11	-2.118883e-09
1.200000e+01	-1.794900e-07	-6.523462e-12	-2.136771e-09
1.210000e+01	-1.798810e-07	3.003857e-12	-2.154624e-09
1.220000e+01	-1.802854e-07	1.235536e-11	-2.172429e-09
1.230000e+01	-1.806757e-07	2.154372e-11	-2.190186e-09
1.240000e+01	-1.810272e-07	3.054707e-11	-2.207910e-09
1.250000e+01	-1.813218e-07	3.939619e-11	-2.225573e-09
1.260000e+01	-1.815522e-07	4.819761e-11	-2.243177e-09
1.270000e+01	-1.817212e-07	5.682538e-11	-2.260721e-09
1.280000e+01	-1.818410e-07	6.562583e-11	-2.278203e-09
1.290000e+01	-1.819295e-07	7.446587e-11	-2.295639e-09
1.300000e+01	-1.820068e-07	8.343077e-11	-2.313036e-09
1.310000e+01	-1.820912e-07	9.249377e-11	-2.330398e-09
1.320000e+01	-1.821960e-07	1.017542e-10	-2.347726e-09
1.330000e+01	-1.823274e-07	1.108986e-10	-2.365037e-09
1.340000e+01	-1.824841e-07	1.201087e-10	-2.382315e-09
1.350000e+01	-1.826577e-07	1.311605e-10	-2.399569e-09
1.360000e+01	-1.828364e-07	1.424406e-10	-2.416790e-09
1.370000e+01	-1.830060e-07	1.537720e-10	-2.433971e-09
1.380000e+01	-1.831541e-07	1.643183e-10	-2.451106e-09
1.390000e+01	-1.832712e-07	1.737370e-10	-2.468193e-09
1.400000e+01	-1.833527e-07	1.831174e-10	-2.485231e-09
1.410000e+01	-1.833993e-07	1.925070e-10	-2.502220e-09
1.420000e+01	-1.834166e-07	2.019167e-10	-2.519162e-09
1.430000e+01	-1.834133e-07	2.114553e-10	-2.536066e-09
1.440000e+01	-1.833996e-07	2.219360e-10	-2.552930e-09
1.450000e+01	-1.833848e-07	2.331048e-10	-2.569761e-09
1.460000e+01	-1.833764e-07	2.444638e-10	-2.586556e-09
1.470000e+01	-1.833780e-07	2.555768e-10	-2.603327e-09
1.480000e+01	-1.833895e-07	2.667955e-10	-2.620075e-09
1.490000e+01	-1.834075e-07	2.778972e-10	-2.636804e-09
1.500000e+01	-1.834265e-07	2.877043e-10	-2.653501e-09
1.510000e+01	-1.834392e-07	2.975508e-10	-2.670162e-09
1.520000e+01	-1.834391e-07	3.074526e-10	-2.686780e-09
1.530000e+01	-1.834211e-07	3.175074e-10	-2.703355e-09
1.540000e+01	-1.833827e-07	3.276417e-10	-2.719884e-09
1.550000e+01	-1.833239e-07	3.378744e-10	-2.736376e-09
1.560000e+01	-1.832471e-07	3.481652e-10	-2.752825e-09
1.570000e+01	-1.831565e-07	3.587034e-10	-2.769234e-09
1.580000e+01	-1.830574e-07	3.696143e-10	-2.785610e-09
1.590000e+01	-1.829547e-07	3.805601e-10	-2.801953e-09
1.600000e+01	-1.828525e-07	3.915049e-10	-2.818256e-09
1.610000e+01	-1.827529e-07	4.027082e-10	-2.834508e-09
1.620000e+01	-1.826565e-07	4.143006e-10	-2.850759e-09
1.630000e+01	-1.825617e-07	4.261219e-10	-2.866982e-09
1.640000e+01	-1.824658e-07	4.380534e-10	-2.883180e-09
1.650000e+01	-1.823650e-07	4.501249e-10	-2.899310e-09
1.660000e+01	-1.822561e-07	4.623583e-10	-2.915442e-09
1.670000e+01	-1.821364e-07	4.748870e-10	-2.931556e-09
1.680000e+01	-1.820048e-07	4.878129e-10	-2.947637e-09
1.690000e+01	-1.818607e-07	5.007844e-10	-2.963696e-09
1.700000e+01	-1.817051e-07	5.140417e-10	-2.979725e-09
1.710000e+01	-1.815402e-07	5.274932e-10	-2.995723e-09
1.720000e+01	-1.813683e-07	5.411897e-10	-3.011700e-09
1.730000e+01	-1.811921e-07	5.550258e-10	-3.027654e-09
1.740000e+01	-1.810138e-07	5.689816e-10	-3.043579e-09
1.750000e+01	-1.808348e-07	5.829577e-10	-3.059477e-09
1.760000e+01	-1.806558e-07	5.972047e-10	-3.075352e-09
1.770000e+01	-1.804761e-07	6.115800e-10	-3.091205e-09
1.780000e+01	-1.802946e-07	6.261171e-10	-3.107037e-09
1.790000e+01	-1.801099e-07	6.408021e-10	-3.122842e-09
1.800000e+01	-1.799201e-07	6.556246e-10	-3.138623e-09
1.810000e+01	-1.797240e-07	6.706280e-10	-3.154378e-09
1.820000e+01	-1.795204e-07	6.857211e-10	-3.170110e-09
1.830000e+01	-1.793091e-07	7.010589e-10	-3.185819e-09
1.840000e+01	-1.790904e-07	7.165790e-10	-3.201505e-09
1.850000e+01	-1.788648e-07	7.323307e-10	-3.217170e-09
1.860000e+01	-1.786341e-07	7.482640e-10	-3.232813e-09
1.870000e+01	-1.783996e-07	7.643537e-10	-3.248437e-09
1.880000e+01	-1.781624e-07	7.806616e-10	-3.264037e-09
1.890000e+01	-1.779234e-07	7.971309e-10	-3.279615e-09
1.900000e+01	-1.776831e-07	8.138101e-10	-3.295174e-09
1.910000e+01	-1.774416e-07	8.306996e-10	-3.310712e-09
1.920000e+01	-1.771984e-07	8.477826e-10	-3.326223e-09
1.930000e+01	-1.769527e-07	8.650755e-10	-3.341712e-09
1.940000e+01	-1.767037e-07	8.825762e-10	-3.357173e-09
1.950000e+01	-1.764507e-07	9.002818e-10	-3.372617e-09
1.960000e+01	-1.761931e-07	9.182023e-10	-3.388040e-09
1.970000e+01	-1.759305e-07	9.363310e-10	-3.403442e-09
1.980000e+01	-1.756639e-07	9.554140e-10	-3.418856e-09
1.990000e+01	-1.753921e-07	9.739481e-10	-3.434218e-09
2.000000e+01	-1.751164e-07	9.927546e-10	-3.449553e-09
2.010000e+01	-1.748376e-07	1.011727e-09	-3.464868e-09
2.020000e+01	-1.745564e-07	1.030962e-09	-3.480163e-09
2.030000e+01	-1.742734e-07	1.050461e-09	-3.495439e-09
2.040000e+01	-1.739889e-07	1.070405e-09	-3.510697e-09
2.050000e+01	-1.737030e-07	1.090381e-09	-3.525937e-09
2.060000e+01	-1.734156e-07	1.110546e-09	-3.541161e-09
2.070000e+01	-1.731264e-07	1.130873e-09	-3.556366e-09
2.080000e+01	-1.728351e-07	1.151426e-09	-3.571553e-09
2.090000e+01	-1.725411e-07	1.172203e-09	-3.586721e-09
2.100000e+01	-1.722442e-07	1.193249e-09	-3.601878e-09
2.110000e+01	-1.719443e-07	1.214493e-09	-3.617010e-09
2.120000e+01	-1.716412e-07	1.235931e-09	-3.632120e-09
2.130000e+01	-1.713352e-07	1.257509e-09	-3.647214e-09
2.140000e+01	-1.710266e-07	1.279356e-09	-3.662286e-09
2.150000e+01	-1.707150e-07	1.301351e-09	-3.677297e-09
2.160000e+01	-1.704022e-07	1.323658e-09	-3.692286e-09
2.170000e+01	-1.700881e-07	1.346309e-09	-3.707305e-09
2.180000e+01	-1.697729e-07	1.369256e-09	-3.722312e-09
2.190000e+01	-1.694566e-07	1.392415e-09	-3.737301e-09
2.200000e+01	-1.691390e-07	1.415815e-09	-3.752277e-09
2.210000e+01	-1.688202e-07	1.439462e-09	-3.767348e-09
2.220000e+01	-1.685002e-07	1.463350e-09	-3.782297e-09
2.230000e+01	-1.681787e-07	1.487479e-09	-3.797229e-09
2.240000e+01	-1.678554e-07	1.511894e-09	-3.812149e-09
2.250000e+01	-1.675303e-07	1.536524e-09	-3.827055e-09
2.260000e+01	-1.672034e-07	1.561392e-09	-3.841948e-09
2.270000e+01	-1.668745e-07	1.586573e-09	-3.856831e-09
2.280000e+01	-1.665440e-07	1.612118e-09	-3.871653e-09
2.290000e+01	-1.662119e-07	1.637820e-09	-3.886511e-09
2.300000e+01	-1.658785e-07	1.663732e-09	-3.901358e-09
2.310000e+01	-1.655439e-07	1.689806e-09	-3.916118e-09
2.320000e+01	-1.652083e-07	1.716227e-09	-3.930945e-09
2.330000e+01	-1.648719e-07	1.742917e-09	-3.945765e-09
2.340000e+01	-1.645348e-07	1.769766e-09	-3.960571e-09
2.350000e+01	-1.641968e-07	1.796874e-09	-3.975353e-09
2.360000e+01	-1.638581e-07	1.824204e-09	-3.990129e-09
2.370000e+01	-1.635183e-07	1.851740e-09	-4.004899e-09
2.380000e+01	-1.631777e-07	1.879413e-09	-4.019659e-09
2.390000e+01	-1.628361e-07	1.907436e-09	-4.034417e-09
2.400000e+01	-1.624933e-07	1.935653e-09	-4.049160e-09
2.410000e+01	-1.621496e-07	1.964105e-09	-4.063896e-09
2.420000e+01	-1.618048e-07	1.992802e-09	-4.078622e-09
2.430000e+01	-1.614592e-07	2.021716e-09	-4.093338e-09
2.440000e+01	-1.611128e-07	2.050852e-09	-4.108036e-09
2.450000e+01	-1.607658e-07	2.080221e-09	-4.122742e-09
2.460000e+01	-1.604183e-07	2.109748e-09	-4.137439e-09
2.470000e+01	-1.600703e-07	2.139476e-09	-4.152137e-09
2.480000e+01	-1.597211e-07	2.169367e-09	-4.166828e-09
2.490000e+01	-1.593719e-07	2.199492e-09	-4.181506e-09
2.500000e+01	-1.590228e-07	2.229871e-09	-4.196176e-09
2.510000e+01	-1.586734e-07	2.260542e-09	-4.210843e-09
2.520000e+01	-1.583236e-07	2.291459e-09	-4.225506e-09
2.530000e+01	-1.579733e-07	2.322576e-09	-4.240164e-09
2.540000e+01	-1.576227e-07	2.354067e-09	-4.254815e-09
2.550000e+01	-1.572717e-07	2.385822e-09	-4.269461e-09
2.560000e+01	-1.569204e-07	2.417793e-09	-4.284102e-09
2.570000e+01	-1.565686e-07	2.449926e-09	-4.298736e-09
2.580000e+01	-1.562166e-07	2.482293e-09	-4.313365e-09
2.590000e+01	-1.558643e-07	2.514887e-09	-4.327989e-09
2.600000e+01	-1.555118e-07	2.547704e-09	-4.342610e-09
2.610000e+01	-1.551592e-07	2.580721e-09	-4.357224e-09
2.620000e+01	-1.548066e-07	2.613962e-09	-4.371834e-09
2.630000e+01	-1.544540e-07	2.647412e-09	-4.386438e-09
2.640000e+01	-1.541014e-07	2.681137e-09	-4.401040e-09
2.650000e+01	-1.537489e-07	2.715153e-09	-4.415635e-09
2.660000e+01	-1.533965e-07	2.749451e-09	-4.430229e-09
2.670000e+01	-1.530440e-07	2.784025e-09	-4.444818e-09
2.680000e+01	-1.526916e-07	2.818901e-09	-4.459406e-09
2.690000e+01	-1.523393e-07	2.854092e-09	-4.473977e-09
2.700000e+01	-1.519869e-07	2.889536e-09	-4.488560e-09
2.710000e+01	-1.516345e-07	2.925211e-09	-4.503116e-09
2.720000e+01	-1.512821e-07	2.961102e-09	-4.517693e-09
2.730000e+01	-1.509292e-07	2.996546e-09	-4.532234e-09
2.740000e+01	-1.505764e-07	3.032160e-09	-4.546808e-09
2.750000e+01	-1.502244e-07	3.068600e-09	-4.561341e-09
2.760000e+01	-1.498725e-07	3.105265e-09	-4.575901e-09
2.770000e+01	-1.495208e-07	3.142067e-09	-4.590425e-09
2.780000e+01	-1.491690e-07	3.178799e-09	-4.604981e-09
2.790000e+01	-1.488175e-07	3.215696e-09	-4.619509e-09
2.800000e+01	-1.484661e-07	3.252796e-09	-4.634063e-09
2.810000e+01	-1.481150e-07	3.290069e-09	-4.648588e-09
2.820000e+01	-1.477639e-07	3.327558e-09	-4.663144e-09
2.830000e+01	-1.474131e-07	3.365228e-09	-4.677664e-09
2.840000e+01	-1.470626e-07	3.403293e-09	-4.692189e-09
2.850000e+01	-1.467125e-07	3.441688e-09	-4.706724e-09
2.860000e+01	-1.463625e-07	3.480259e-09	-4.721294e-09
2.870000e+01	-1.460128e-07	3.519047e-09	-4.735824e-09
2.880000e+01	-1.456634e-07	3.558023e-09	-4.750384e-09
2.890000e+01	-1.453142e-07	3.597169e-09	-4.764916e-09
2.900000e+01	-1.449655e-07	3.636416e-09	-4.779438e-09
2.910000e+01	-1.446170e-07	3.675759e-09	-4.793968e-09
2.920000e+01	-1.442689e-07	3.715275e-09	-4.808510e-09
2.930000e+01	-1.439211e-07	3.754976e-09	-4.823043e-09
2.940000e+01	-1.435737e-07	3.794858e-09	-4.837578e-09
2.950000e+01	-1.432267e-07	3.834884e-09	-4.852108e-09
2.960000e+01	-1.428800e-07	3.875077e-09	-4.866646e-09
2.970000e+01	-1.425337e-07	3.915440e-09	-4.881166e-09
2.980000e+01	-1.421877e-07	3.955899e-09	-4.895709e-09
2.990000e+01	-1.418422e-07	3.996535e-09	-4.910201e-09
3.000000e+01	-1.414971e-07	4.037338e-09	-4.924691e-09
3.010000e+01	-1.411525e-07	4.078299e-09	-4.939216e-09
3.020000e+01	-1.408083e-07	4.119416e-09	-4.953764e-09
3.030000e+01	-1.404644e-07	4.160709e-09	-4.968285e-09
3.040000e+01	-1.401211e-07	4.202147e-09	-4.982817e-09
3.050000e+01	-1.397782e-07	4.243760e-09	-4.997337e-09
3.060000e+01	-1.394358e-07	4.285559e-09	-5.011866e-09
3.070000e+01	-1.390939e-07	4.327455e-09	-5.026390e-09
3.080000e+01	-1.387525e-07	4.369503e-09	-5.040928e-09
3.090000e+01	-1.384116e-07	4.411720e-09	-5.055454e-09
3.100000e+01	-1.380712e-07	4.454086e-09	-5.069985e-09
3.110000e+01	-1.377312e-07	4.496610e-09	-5.084510e-09
3.120000e+01	-1.373919e-07	4.539270e-09	-5.099043e-09
3.130000e+01	-1.370530e-07	4.582065e-09	-5.113571e-09
3.140000e+01	-1.367147e-07	4.625014e-09	-5.128115e-09
3.150000e+01	-1.363769e-07	4.668112e-09	-5.142644e-09
3.160000e+01	-1.360396e-07	4.711347e-09	-5.157184e-09
3.170000e+01	-1.357029e-07	4.754730e-09	-5.171712e-09
3.180000e+01	-1.353668e-07	4.798258e-09	-5.186251e-09
3.190000e+01	-1.350313e-07	4.841919e-09	-5.200784e-09
3.200000e+01	-1.346963e-07	4.885723e-09	-5.215329e-09
3.210000e+01	-1.343620e-07	4.929662e-09	-5.229867e-09
3.220000e+01	-1.340282e-07	4.973731e-09	-5.244414e-09
3.230000e+01	-1.336950e-07	5.017912e-09	-5.258943e-09
3.240000e+01	-1.333624e-07	5.062250e-09	-5.273494e-09
3.250000e+01	-1.330304e-07	5.106618e-09	-5.288020e-09
3.260000e+01	-1.326991e-07	5.150543e-09	-5.302574e-09
3.270000e+01	-1.323685e-07	5.194640e-09	-5.317128e-09
3.280000e+01	-1.320385e-07	5.238997e-09	-5.331673e-09
3.290000e+01	-1.317091e-07	5.284163e-09	-5.346217e-09
3.300000e+01	-1.313804e-07	5.329515e-09	-5.360783e-09
3.310000e+01	-1.310523e-07	5.374975e-09	-5.375346e-09
3.320000e+01	-1.307248e-07	5.420553e-09	-5.389921e-09
3.330000e+01	-1.303980e-07	5.466238e-09	-5.404490e-09
3.340000e+01	-1.300718e-07	5.512024e-09	-5.419069e-09
3.350000e+01	-1.297463e-07	5.557920e-09	-5.433646e-09
3.360000e+01	-1.294214e-07	5.603914e-09	-5.448232e-09
3.370000e+01	-1.290972e-07	5.650001e-09	-5.462817e-09
3.380000e+01	-1.287737e-07	5.696193e-09	-5.477413e-09
3.390000e+01	-1.284508e-07	5.742489e-09	-5.492010e-09
3.400000e+01	-1.281287e-07	5.788866e-09	-5.506612e-09
3.410000e+01	-1.278072e-07	5.835280e-09	-5.521216e-09
3.420000e+01	-1.274864e-07	5.881787e-09	-5.535823e-09
3.430000e+01	-1.271663e-07	5.928365e-09	-5.550437e-09
3.440000e+01	-1.268469e-07	5.975033e-09	-5.565060e-09
3.450000e+01	-1.265282e-07	6.021790e-09	-5.579684e-09
3.460000e+01	-1.262103e-07	6.068613e-09	-5.594314e-09
3.470000e+01	-1.258931e-07	6.115528e-09	-5.608950e-09
3.480000e+01	-1.255766e-07	6.162525e-09	-5.623588e-09
3.490000e+01	-1.252607e-07	6.209594e-09	-5.638233e-09
3.500000e+01	-1.249455e-07	6.256813e-09	-5.652886e-09
3.510000e+01	-1.246310e-07	6.304169e-09	-5.667541e-09
3.520000e+01	-1.243171e-07	6.351583e-09	-5.682203e-09
3.530000e+01	-1.240036e-07	6.399042e-09	-5.696870e-09
3.540000e+01	-1.236909e-07	6.446518e-09	-5.711540e-09
3.550000e+01	-1.233792e-07	6.493441e-09	-5.726214e-09
3.560000e+01	-1.230681e-07	6.540943e-09	-5.740898e-09
3.570000e+01	-1.227579e-07	6.588610e-09	-5.755592e-09
3.580000e+01	-1.224484e-07	6.636304e-09	-5.770295e-09
3.590000e+01	-1.221396e-07	6.684054e-09	-5.785011e-09
3.600000e+01	-1.218316e-07	6.731862e-09	-5.799723e-09
3.610000e+01	-1.215243e-07	6.779688e-09	-5.814443e-09
3.620000e+01	-1.212177e-07	6.827579e-09	-5.829173e-09
3.630000e+01	-1.209119e-07	6.875504e-09	-5.843908e-09
3.640000e+01	-1.206069e-07	6.923455e-09	-5.858645e-09
3.650000e+01	-1.203026e-07	6.971449e-09	-5.873390e-09
3.660000e+01	-1.199991e-07	7.019479e-09	-5.888142e-09
3.670000e+01	-1.196964e-07	7.067521e-09	-5.902902e-09
3.680000e+01	-1.193944e-07	7.115344e-09	-5.917669e-09
3.690000e+01	-1.190932e-07	7.163457e-09	-5.932444e-09
3.700000e+01	-1.187928e-07	7.211587e-09	-5.947231e-09
3.710000e+01	-1.184932e-07	7.259756e-09	-5.962028e-09
3.720000e+01	-1.181940e-07	7.307917e-09	-5.976830e-09
3.730000e+01	-1.178943e-07	7.355864e-09	-5.991643e-09
3.740000e+01	-1.175955e-07	7.403844e-09	-6.006464e-09
3.750000e+01	-1.172983e-07	7.451932e-09	-6.021292e-09
3.760000e+01	-1.170028e-07	7.500151e-09	-6.036129e-09
3.770000e+01	-1.167080e-07	7.548361e-09	-6.050974e-09
3.780000e+01	-1.164141e-07	7.596595e-09	-6.065829e-09
3.790000e+01	-1.161210e-07	7.644853e-09	-6.080692e-09
3.800000e+01	-1.158287e-07	7.693148e-09	-6.095569e-09
3.810000e+01	-1.155373e-07	7.741459e-09	-6.110451e-09
3.820000e+01	-1.152468e-07	7.789771e-09	-6.125343e-09
3.830000e+01	-1.149570e-07	7.838106e-09	-6.140243e-09
3.840000e+01	-1.146681e-07	7.886443e-09	-6.155150e-09
3.850000e+01	-1.143800e-07	7.934784e-09	-6.170065e-09
3.860000e+01	-1.140928e-07	7.983145e-09	-6.184988e-09
3.870000e+01	-1.138064e-07	8.031504e-09	-6.199915e-09
3.880000e+01	-1.135208e-07	8.079849e-09	-6.214848e-09
3.890000e+01	-1.132360e-07	8.128195e-09	-6.229789e-09
3.900000e+01	-1.129522e-07	8.176527e-09	-6.244736e-09
3.910000e+01	-1.126691e-07	8.224830e-09	-6.259694e-09
3.920000e+01	-1.123869e-07	8.273112e-09	-6.274661e-09
3.930000e+01	-1.121055e-07	8.321329e-09	-6.289633e-09
3.940000e+01	-1.118250e-07	8.369471e-09	-6.304615e-09
3.950000e+01	-1.115452e-07	8.417610e-09	-6.319606e-09
3.960000e+01	-1.112664e-07	8.465726e-09	-6.334603e-09
3.970000e+01	-1.109884e-07	8.513809e-09	-6.349611e-09
3.980000e+01	-1.107112e-07	8.561874e-09	-6.364629e-09
3.990000e+01	-1.104349e-07	8.609909e-09	-6.379654e-09
4.000000e+01	-1.101594e-07	8.657945e-09	-6.394690e-09
4.010000e+01	-1.098847e-07	8.705923e-09	-6.409736e-09
4.020000e+01	-1.096109e-07	8.753866e-09	-6.424788e-09
4.030000e+01	-1.093380e-07	8.801853e-09	-6.439902e-09
4.040000e+01	-1.090659e-07	8.849732e-09	-6.454975e-09
4.050000e+01	-1.087947e-07	8.897562e-09	-6.470053e-09
4.060000e+01	-1.085244e-07	8.945340e-09	-6.485142e-09
4.070000e+01	-1.082549e-07	8.993074e-09	-6.500242e-09
4.080000e+01	-1.079863e-07	9.040727e-09	-6.515349e-09
4.090000e+01	-1.077185e-07	9.088278e-09	-6.530470e-09
4.100000e+01	-1.074516e-07	9.135762e-09	-6.545602e-09
4.110000e+01	-1.071856e-07	9.183145e-09	-6.560739e-09
4.120000e+01	-1.069205e-07	9.230417e-09	-6.575886e-09
4.130000e+01	-1.066562e-07	9.277625e-09	-6.591042e-09
4.140000e+01	-1.063929e-07	9.324757e-09	-6.606204e-09
4.150000e+01	-1.061304e-07	9.371819e-09	-6.621367e-09
4.160000e+01	-1.058690e-07	9.418822e-09	-6.636537e-09
4.170000e+01	-1.056085e-07	9.465749e-09	-6.651725e-09
4.180000e+01	-1.053490e-07	9.512600e-09	-6.666922e-09
4.190000e+01	-1.050902e-07	9.559397e-09	-6.682130e-09
4.200000e+01	-1.048324e-07	9.606111e-09	-6.697344e-09
4.210000e+01	-1.045754e-07	9.652750e-09	-6.712568e-09
4.220000e+01	-1.043192e-07	9.699334e-09	-6.727803e-09
4.230000e+01	-1.040636e-07	9.745831e-09	-6.743045e-09
4.240000e+01	-1.038089e-07	9.792239e-09	-6.758297e-09
4.250000e+01	-1.035550e-07	9.838573e-09	-6.773559e-09
4.260000e+01	-1.033019e-07	9.884803e-09	-6.788827e-09
4.270000e+01	-1.030497e-07	9.930942e-09	-6.804105e-09
4.280000e+01	-1.027983e-07	9.977006e-09	-6.819392e-09
4.290000e+01	-1.025477e-07	1.002296e-08	-6.834698e-09
4.300000e+01	-1.022979e-07	1.006880e-08	-6.850000e-09
4.310000e+01	-1.020490e-07	1.011456e-08	-6.865318e-09
4.320000e+01	-1.018009e-07	1.016019e-08	-6.880651e-09
4.330000e+01	-1.015537e-07	1.020573e-08	-6.895983e-09
4.340000e+01	-1.013072e-07	1.025118e-08	-6.911326e-09
4.350000e+01	-1.010617e-07	1.029651e-08	-6.926665e-09
4.360000e+01	-1.008170e-07	1.034173e-08	-6.942029e-09
4.370000e+01	-1.005731e-07	1.038686e-08	-6.957389e-09
4.380000e+01	-1.003301e-07	1.043187e-08	-6.972755e-09
4.390000e+01	-1.000880e-07	1.047675e-08	-6.988130e-09
4.400000e+01	-9.984671e-08	1.052151e-08	-7.003515e-09
4.410000e+01	-9.960627e-08	1.056615e-08	-7.018907e-09
4.420000e+01	-9.936668e-08	1.061065e-08	-7.034309e-09
4.430000e+01	-9.912793e-08	1.065505e-08	-7.049722e-09
4.440000e+01	-9.889005e-08	1.069932e-08	-7.065141e-09
4.450000e+01	-9.865305e-08	1.074345e-08	-7.080572e-09
4.460000e+01	-9.841688e-08	1.078747e-08	-7.096015e-09
4.470000e+01	-9.818159e-08	1.083134e-08	-7.111464e-09
4.480000e+01	-9.794716e-08	1.087506e-08	-7.126924e-09
4.490000e+01	-9.771354e-08	1.091865e-08	-7.142394e-09
4.500000e+01	-9.748076e-08	1.096206e-08	-7.157870e-09
4.510000e+01	-9.724882e-08	1.100533e-08	-7.173358e-09
4.520000e+01	-9.701771e-08	1.104846e-08	-7.188855e-09
4.530000e+01	-9.678751e-08	1.109142e-08	-7.204358e-09
4.540000e+01	-9.655815e-08	1.113423e-08	-7.219873e-09
4.550000e+01	-9.632960e-08	1.117690e-08	-7.235397e-09
4.560000e+01	-9.610192e-08	1.121940e-08	-7.250928e-09
4.570000e+01	-9.587509e-08	1.126175e-08	-7.266469e-09
4.580000e+01	-9.564898e-08	1.130398e-08	-7.282019e-09
4.590000e+01	-9.542373e-08	1.134605e-08	-7.297578e-09
4.600000e+01	-9.519932e-08	1.138796e-08	-7.313146e-09
4.610000e+01	-9.497571e-08	1.142973e-08	-7.328727e-09
4.620000e+01	-9.475297e-08	1.147131e-08	-7.344312e-09
4.630000e+01	-9.453105e-08	1.151274e-08	-7.359903e-09
4.640000e+01	-9.430996e-08	1.155401e-08	-7.375503e-09
4.650000e+01	-9.408972e-08	1.159509e-08	-7.391125e-09
4.660000e+01	-9.387033e-08	1.163600e-08	-7.406747e-09
4.670000e+01	-9.365175e-08	1.167676e-08	-7.422377e-09
4.680000e+01	-9.343402e-08	1.171733e-08	-7.438014e-09
4.690000e+01	-9.321712e-08	1.175773e-08	-7.453664e-09
4.700000e+01	-9.300104e-08	1.179797e-08	-7.469323e-09
4.710000e+01	-9.278581e-08	1.183802e-08	-7.484988e-09
4.720000e+01	-9.257141e-08	1.187789e-08	-7.500660e-09
4.730000e+01	-9.235782e-08	1.191760e-08	-7.516339e-09
4.740000e+01	-9.214508e-08	1.195711e-08	-7.532023e-09
4.750000e+01	-9.193317e-08	1.199644e-08	-7.547715e-09
4.760000e+01	-9.172207e-08	1.203560e-08	-7.563418e-09
4.770000e+01	-9.151183e-08	1.207455e-08	-7.579129e-09
4.780000e+01	-9.130244e-08	1.211333e-08	-7.594849e-09
4.790000e+01	-9.109393e-08	1.215192e-08	-7.610578e-09
4.800000e+01	-9.088633e-08	1.219031e-08	-7.626317e-09
4.810000e+01	-9.067960e-08	1.222852e-08	-7.642065e-09
4.820000e+01	-9.047366e-08	1.226656e-08	-7.657824e-09
4.830000e+01	-9.026856e-08	1.230440e-08	-7.673588e-09
4.840000e+01	-9.006426e-08	1.234204e-08	-7.689363e-09
4.850000e+01	-8.986075e-08	1.237950e-08	-7.705148e-09
4.860000e+01	-8.965807e-08	1.241674e-08	-7.720940e-09
4.870000e+01	-8.945618e-08	1.245379e-08	-7.736748e-09
4.880000e+01	-8.925508e-08	1.249063e-08	-7.752561e-09
4.890000e+01	-8.905481e-08	1.252722e-08	-7.768381e-09
4.900000e+01	-8.885538e-08	1.256362e-08	-7.784210e-09
4.910000e+01	-8.865674e-08	1.259982e-08	-7.800049e-09
4.920000e+01	-8.845894e-08	1.263581e-08	-7.815894e-09
4.930000e+01	-8.826196e-08	1.267159e-08	-7.831748e-09
4.940000e+01	-8.806578e-08	1.270720e-08	-7.847617e-09
4.950000e+01	-8.787044e-08	1.274258e-08	-7.863494e-09
4.960000e+01	-8.767591e-08	1.277776e-08	-7.879382e-09
4.970000e+01	-8.748219e-08	1.281273e-08	-7.895326e-09
4.980000e+01	-8.728927e-08	1.284747e-08	-7.911234e-09
4.990000e+01	-8.709717e-08	1.288201e-08	-7.927153e-09
5.000000e+01	-8.690586e-08	1.291635e-08	-7.943082e-09
5.010000e+01	-8.671537e-08	1.295045e-08	-7.959019e-09
5.020000e+01	-8.652570e-08	1.298435e-08	-7.974967e-09
5.030000e+01	-8.633684e-08	1.301804e-08	-7.990926e-09
5.040000e+01	-8.614879e-08	1.305150e-08	-8.006892e-09
5.050000e+01	-8.596157e-08	1.308475e-08	-8.022871e-09
5.060000e+01	-8.577514e-08	1.311779e-08	-8.038858e-09
5.070000e+01	-8.558955e-08	1.315059e-08	-8.054856e-09
5.080000e+01	-8.540477e-08	1.318318e-08	-8.070863e-09
5.090000e+01	-8.522079e-08	1.321556e-08	-8.086881e-09
5.100000e+01	-8.503762e-08	1.324769e-08	-8.102906e-09
5.110000e+01	-8.485526e-08	1.327961e-08	-8.118945e-09
5.120000e+01	-8.467368e-08	1.331132e-08	-8.134993e-09
5.130000e+01	-8.449292e-08	1.334280e-08	-8.151052e-09
5.140000e+01	-8.431297e-08	1.337405e-08	-8.167119e-09
5.150000e+01	-8.413380e-08	1.340509e-08	-8.183204e-09
5.160000e+01	-8.395544e-08	1.343585e-08	-8.199295e-09
5.170000e+01	-8.377789e-08	1.346633e-08	-8.215406e-09
5.180000e+01	-8.360111e-08	1.349655e-08	-8.231524e-09
5.190000e+01	-8.342513e-08	1.352653e-08	-8.247656e-09
5.200000e+01	-8.324995e-08	1.355627e-08	-8.263793e-09
5.210000e+01	-8.307553e-08	1.358580e-08	-8.279947e-09
5.220000e+01	-8.290191e-08	1.361509e-08	-8.296105e-09
5.230000e+01	-8.272909e-08	1.364415e-08	-8.312283e-09
5.240000e+01	-8.255703e-08	1.367298e-08	-8.328459e-09
5.250000e+01	-8.238578e-08	1.370155e-08	-8.344656e-09
5.260000e+01	-8.221531e-08	1.372987e-08	-8.360851e-09
5.270000e+01	-8.204559e-08	1.375799e-08	-8.377068e-09
5.280000e+01	-8.187668e-08	1.378586e-08	-8.393282e-09
5.290000e+01	-8.170855e-08	1.381349e-08	-8.409521e-09
5.300000e+01	-8.154119e-08	1.384090e-08	-8.425756e-09
5.310000e+01	-8.137463e-08	1.386804e-08	-8.442014e-09